ITEM: TIMESTEP
0
ITEM: NUMBER OF ATOMS
1050
ITEM: BOX BOUNDS pp pp pp
-1.5000000000000000e+01 1.5000000000000000e+01
-1.5000000000000000e+01 1.5000000000000000e+01
-1.5000000000000000e+01 1.5000000000000000e+01
ITEM: ATOMS id type xs ys zs
70 8 0.241957 0.128012 0.0634032
71 9 0.232051 0.11127 0.0372529
271 8 0.105801 0.200741 0.161687
272 9 0.130634 0.180183 0.155714
273 9 0.107427 0.219292 0.134714
488 9 0.154536 0.246324 0.0553322
568 8 0.188986 0.14006 0.144011
569 9 0.206871 0.139826 0.116067
570 9 0.177597 0.109036 0.142724
595 8 0.166972 0.0443129 0.131587
596 9 0.145781 0.0230932 0.144477
597 9 0.182851 0.0249488 0.110821
766 8 0.211068 0.231661 0.18259
767 9 0.215025 0.228273 0.214806
768 9 0.206639 0.200394 0.173387
875 9 0.0895011 0.192275 0.237934
72 9 0.25938 0.151365 0.0476548
199 8 0.368248 0.142344 0.185887
200 9 0.341427 0.123626 0.182172
201 9 0.373762 0.139091 0.217861
445 8 0.285058 0.0916099 0.167204
446 9 0.254427 0.0971273 0.176812
447 9 0.281854 0.0944756 0.134846
493 8 0.395317 0.0446174 0.0378045
494 9 0.42171 0.0578859 0.0226974
495 9 0.390951 0.0676441 0.060293
745 8 0.468152 0.0980859 0.00432246
747 9 0.482276 0.119706 0.025054
59 9 0.665785 0.246494 0.213084
373 8 0.581263 0.231642 0.0664035
374 9 0.598276 0.231094 0.0379558
526 8 0.515491 0.159861 0.0620292
527 9 0.516936 0.15663 0.0943081
528 9 0.537733 0.184147 0.058419
826 8 0.745261 0.0359676 0.123882
1038 9 0.569765 0.0571069 7.55484e-05
388 8 0.970767 0.116383 0.0130161
828 9 0.760291 0.0633051 0.113049
208 8 0.808379 0.106249 0.0992502
209 9 0.839077 0.0950594 0.0952337
210 9 0.814749 0.138405 0.097174
228 9 0.789184 0.246288 0.156814
427 8 0.867375 0.185752 0.0932667
428 9 0.886248 0.20436 0.0736758
429 9 0.884947 0.15803 0.0928421
592 8 0.931168 0.09044 0.226016
593 9 0.951297 0.112505 0.239016
594 9 0.902598 0.0998462 0.238488
655 8 0.931241 0.233342 0.0341331
656 9 0.925755 0.235266 0.00207162
827 9 0.768146 0.0259942 0.14536
844 8 0.906812 0.091908 0.0863577
845 9 0.928328 0.0949741 0.0615949
846 9 0.922241 0.0695996 0.105013
910 8 0.951979 0.0288369 0.152585
911 9 0.976166 0.0169259 0.170729
912 9 0.938992 0.0494082 0.175129
389 9 0.987465 0.140891 0.0265696
487 8 0.129503 0.259279 0.0716367
13 8 0.149038 0.344144 0.013381
14 9 0.179901 0.338736 0.024105
253 8 0.126445 0.381354 0.23212
254 9 0.115016 0.370705 0.202932
255 9 0.0979429 0.392017 0.244883
280 8 0.084319 0.364776 0.145
281 9 0.0623203 0.358121 0.121833
282 9 0.0963602 0.392997 0.132824
424 8 0.12864 0.444062 0.108188
425 9 0.160617 0.439289 0.104139
426 9 0.129839 0.472947 0.124411
489 9 0.124554 0.286461 0.0538922
736 8 0.0680655 0.396465 0.0450434
737 9 0.0910356 0.377618 0.0309989
738 9 0.0872323 0.41786 0.0608374
1042 8 0.189117 0.314428 0.140692
1043 9 0.156755 0.311991 0.135989
1044 9 0.194588 0.284862 0.155063
406 8 0.235548 0.328316 0.0547261
408 9 0.219739 0.320259 0.0824587
972 9 0.247873 0.342922 0.14824
377 9 0.000937055 0.46651 0.116269
178 8 0.444381 0.464918 0.013966
179 9 0.448116 0.473574 0.0456246
180 9 0.438485 0.432805 0.0175313
407 9 0.263882 0.337655 0.0681559
580 8 0.432982 0.364604 0.0301468
581 9 0.465315 0.364189 0.0371895
582 9 0.423594 0.339427 0.0494487
730 8 0.4048 0.286398 0.0843191
731 9 0.417953 0.256613 0.0827626
732 9 0.383971 0.283137 0.109164
970 8 0.277712 0.35649 0.144459
971 9 0.276326 0.380772 0.1658
478 8 0.451468 0.498413 0.105509
375 9 0.588923 0.261686 0.0770807
901 8 0.523144 0.327055 0.225895
903 9 0.513266 0.343604 0.19964
58 8 0.655565 0.259952 0.241003
60 9 0.671551 0.288967 0.238474
139 8 0.617112 0.409902 0.151358
140 9 0.644775 0.425933 0.14503
141 9 0.60825 0.425069 0.179305
631 8 0.594755 0.322532 0.116517
632 9 0.605651 0.351946 0.127338
633 9 0.591835 0.307558 0.145256
646 8 0.717011 0.332371 0.219356
648 9 0.729112 0.362871 0.220674
673 8 0.603095 0.452703 0.240381
724 8 0.527298 0.367027 0.0586209
725 9 0.541713 0.394683 0.0677985
726 9 0.547432 0.345467 0.0732512
560 9 0.740992 0.45615 0.24608
647 9 0.73978 0.317474 0.200711
702 9 0.544542 0.267652 0.248962
902 9 0.511126 0.346988 0.249548
657 9 0.942922 0.263061 0.0405732
226 8 0.771195 0.273423 0.158084
227 9 0.771682 0.282289 0.126728
376 8 0.974687 0.462619 0.135243
378 9 0.961549 0.49303 0.132659
559 8 0.755333 0.430502 0.232093
667 8 0.917783 0.494007 0.0408756
668 9 0.934808 0.484988 0.0147612
669 9 0.905696 0.46498 0.0507558
733 8 0.960921 0.453122 0.230844
734 9 0.964944 0.451152 0.198005
735 9 0.96128 0.485563 0.23429
742 8 0.758212 0.479287 0.140172
743 9 0.761689 0.461664 0.167515
961 8 0.795988 0.315587 0.000945617
963 9 0.817249 0.33748 0.0119518
1027 8 0.908486 0.40562 0.0887058
1028 9 0.932622 0.420667 0.105346
1029 9 0.891379 0.392606 0.113035
157 8 0.116151 0.615811 0.190943
158 9 0.118215 0.644745 0.205562
159 9 0.134726 0.621221 0.164349
589 8 0.141925 0.708051 0.119173
590 9 0.11187 0.71817 0.110438
688 8 0.175901 0.617792 0.11156
689 9 0.200785 0.61891 0.0905819
690 9 0.164919 0.649034 0.109174
781 8 0.0409752 0.722304 0.103005
783 9 0.0349038 0.718787 0.0706986
943 8 0.145827 0.528304 0.153483
944 9 0.160016 0.552257 0.136063
945 9 0.12923 0.547578 0.174277
782 9 0.0276656 0.694773 0.114124
591 9 0.156129 0.737001 0.125964
793 8 0.0162965 0.701844 0.0100449
479 9 0.474303 0.510857 0.125018
474 9 0.446738 0.644223 0.013561
480 9 0.425465 0.516094 0.113853
652 8 0.287355 0.718269 0.0319597
653 9 0.317564 0.731092 0.0268404
654 9 0.286595 0.720095 0.064453
958 8 0.475981 0.664592 0.210383
959 9 0.486728 0.636817 0.223613
960 9 0.480063 0.685404 0.235443
151 8 0.537223 0.69657 0.0302583
152 9 0.544814 0.664904 0.0316788
303 9 0.71342 0.591548 0.233903
349 8 0.720833 0.595145 0.021406
350 9 0.71671 0.583999 0.0516945
351 9 0.738192 0.622255 0.0285457
361 8 0.578632 0.5669 0.024566
363 9 0.575003 0.537448 0.0104884
547 8 0.65301 0.588935 0.111443
548 9 0.637099 0.586122 0.0829316
549 9 0.627596 0.590078 0.131749
628 8 0.670492 0.693235 0.239932
629 9 0.673007 0.705354 0.209824
805 8 0.732532 0.573527 0.173207
806 9 0.710274 0.581012 0.150066
873 9 0.534854 0.741429 0.0819381
980 9 0.736603 0.734348 0.124076
362 9 0.562018 0.584623 0.0024248
744 9 0.752865 0.509225 0.15239
807 9 0.75599 0.596095 0.167149
7 8 0.803454 0.641941 0.164035
8 9 0.806251 0.672953 0.153583
9 9 0.831505 0.630481 0.151237
10 8 0.922413 0.664347 0.0242195
11 9 0.931461 0.641188 0.00293397
12 9 0.947866 0.684602 0.0203088
124 8 0.933955 0.549741 0.12053
125 9 0.919722 0.579428 0.12081
126 9 0.924138 0.538937 0.0908618
262 8 0.892359 0.641557 0.114798
263 9 0.904409 0.670166 0.125688
264 9 0.898549 0.645995 0.0825979
622 8 0.921067 0.736946 0.128329
727 8 0.822114 0.731796 0.125327
728 9 0.855135 0.731385 0.123839
748 8 0.766719 0.677677 0.0555536
749 9 0.79118 0.68938 0.0739415
750 9 0.754156 0.705756 0.0441827
623 9 0.946009 0.743609 0.108481
520 8 0.173992 0.801833 0.147436
521 9 0.200084 0.818298 0.158921
522 9 0.150036 0.816125 0.164697
829 8 0.111037 0.922834 0.146088
830 9 0.0985821 0.898014 0.163743
831 9 0.121411 0.90658 0.119939
904 8 0.0835137 0.831986 0.183119
905 9 0.071224 0.82688 0.212876
906 9 0.0662842 0.81047 0.165485
895 8 0.246227 0.870885 0.19056
897 9 0.241503 0.902481 0.196549
115 8 0.482113 0.875582 0.120678
116 9 0.468149 0.874009 0.0914026
117 9 0.470401 0.904464 0.131386
334 8 0.383204 0.956016 0.0792438
335 9 0.40518 0.959998 0.103281
336 9 0.387467 0.984504 0.0630675
463 8 0.345005 0.894745 0.194582
464 9 0.371902 0.887379 0.212391
465 9 0.35915 0.905205 0.167174
896 9 0.279196 0.870619 0.19002
913 8 0.299719 0.965092 0.00315496
915 9 0.310982 0.957147 0.0328578
946 8 0.370874 0.763231 0.019222
948 9 0.398538 0.772746 0.0335091
952 8 0.430312 0.874263 0.242382
954 9 0.458328 0.862231 0.230927
1009 8 0.448216 0.960039 0.158208
1010 9 0.433688 0.968011 0.186234
1011 9 0.479644 0.960078 0.168885
979 8 0.72056 0.76272 0.122518
145 8 0.535473 0.941456 0.197244
146 9 0.541343 0.910106 0.204074
147 9 0.566429 0.950549 0.189931
235 8 0.539136 0.825983 0.182917
236 9 0.520061 0.844324 0.163055
237 9 0.541395 0.799899 0.162939
310 8 0.710184 0.949181 0.114353
311 9 0.71853 0.946255 0.0829258
312 9 0.71803 0.981343 0.118639
517 8 0.685942 0.904062 0.0226515
518 9 0.691112 0.877513 0.0408343
519 9 0.655251 0.911477 0.0308074
586 8 0.619727 0.790712 0.246893
587 9 0.646761 0.801256 0.230915
588 9 0.596296 0.8039 0.227927
610 8 0.631482 0.948986 0.178729
611 9 0.650511 0.942056 0.204825
612 9 0.654553 0.949123 0.155386
651 9 0.743949 0.906033 0.152336
871 8 0.540936 0.76967 0.0978564
872 9 0.550817 0.788018 0.0730014
916 8 0.700402 0.818613 0.200102
917 9 0.723114 0.84151 0.19363
918 9 0.706274 0.798552 0.174443
981 9 0.71968 0.767054 0.0897916
529 8 0.730899 0.766079 0.0239
531 9 0.707802 0.7746 0.00259594
711 9 0.986894 0.992044 0.0785248
877 8 0.813639 0.983968 0.173827
878 9 0.821014 0.968005 0.146106
624 9 0.92172 0.764522 0.147035
709 8 0.980884 0.964462 0.0621637
319 8 0.922499 0.912501 0.1193
320 9 0.925926 0.938911 0.138168
321 9 0.944131 0.920945 0.0956365
508 8 0.829171 0.926113 0.093697
509 9 0.86036 0.916625 0.099379
510 9 0.832716 0.940341 0.0646024
649 8 0.767253 0.885998 0.164389
650 9 0.789248 0.889085 0.140242
703 8 0.919974 0.823766 0.169223
704 9 0.916332 0.834521 0.200357
705 9 0.920397 0.852535 0.153206
710 9 0.99323 0.971487 0.0328373
729 9 0.817668 0.7625 0.135617
879 9 0.803237 0.959111 0.192123
530 9 0.756842 0.763661 0.00332757
193 8 0.211576 0.241895 0.380757
194 9 0.210745 0.243301 0.347888
195 9 0.209824 0.209341 0.386225
394 8 0.04928 0.158512 0.371472
395 9 0.0783171 0.149508 0.383646
396 9 0.0587957 0.171703 0.342895
468 9 0.223887 0.017976 0.484658
556 8 0.00511542 0.0720086 0.402733
557 9 0.00659286 0.088702 0.430635
874 8 0.0832959 0.197131 0.269782
876 9 0.0804973 0.229545 0.270101
982 8 0.122543 0.0954203 0.420701
983 9 0.104957 0.0708972 0.408355
984 9 0.131419 0.0824954 0.449316
1024 8 0.219145 0.148407 0.417566
1025 9 0.192185 0.12993 0.419854
1032 9 0.00305761 0.195798 0.420515
1026 9 0.241607 0.124516 0.412428
558 9 0.0130789 0.0959916 0.381798
340 8 0.282403 0.0776865 0.397722
341 9 0.307606 0.0811135 0.376822
342 9 0.273126 0.0475048 0.388217
403 8 0.394779 0.149809 0.286662
404 9 0.427581 0.154873 0.284992
405 9 0.385089 0.180728 0.289868
564 9 0.291191 0.00901453 0.326718
601 8 0.490042 0.171985 0.292959
841 8 0.348365 0.0694746 0.321195
842 9 0.374445 0.051605 0.31383
843 9 0.359428 0.098817 0.310855
868 8 0.26607 0.224084 0.463963
869 9 0.254707 0.194249 0.455409
870 9 0.256141 0.240272 0.437327
989 9 0.488772 0.109792 0.370039
603 9 0.509974 0.195069 0.280165
701 9 0.589012 0.243697 0.253496
990 9 0.527025 0.107233 0.401925
247 8 0.622142 0.204879 0.42307
248 9 0.643831 0.210937 0.39897
249 9 0.597522 0.223455 0.411845
523 8 0.585 0.0274807 0.351632
524 9 0.575601 0.0152691 0.323039
525 9 0.562765 0.0513711 0.355878
579 9 0.613442 0.171827 0.479213
602 9 0.511689 0.154142 0.309819
700 8 0.557651 0.240731 0.263091
799 8 0.668069 0.226681 0.338147
800 9 0.679196 0.195855 0.334442
801 9 0.670347 0.23777 0.307221
853 8 0.526351 0.11601 0.466259
898 8 0.690328 0.128826 0.325154
899 9 0.670678 0.111786 0.344826
900 9 0.69548 0.107257 0.301276
988 8 0.520792 0.104057 0.369515
578 9 0.6394 0.132544 0.496398
854 9 0.554144 0.127739 0.479534
855 9 0.507302 0.114306 0.49256
25 8 0.881283 0.22045 0.473483
26 9 0.913137 0.21458 0.468685
27 9 0.874673 0.236193 0.445275
202 8 0.806874 0.053907 0.471985
204 9 0.806116 0.0823307 0.456166
270 9 0.839113 0.0121734 0.432145
1003 8 0.834376 0.199118 0.31205
1004 9 0.815626 0.191897 0.28656
1005 9 0.820125 0.226385 0.322756
1014 9 0.873742 0.232482 0.367793
1030 8 0.984664 0.214209 0.440546
1031 9 0.992965 0.243868 0.428358
95 9 0.98501 0.00623026 0.408806
269 9 0.854623 0.0181971 0.384833
607 8 0.185706 0.448248 0.268558
609 9 0.168289 0.423313 0.255232
676 8 0.0423849 0.414304 0.273036
678 9 0.0161746 0.422161 0.254794
4 8 0.0818616 0.35722 0.4511
5 9 0.0947023 0.387315 0.446512
6 9 0.110203 0.340989 0.446315
130 8 0.165046 0.320024 0.419059
131 9 0.178681 0.292454 0.408322
132 9 0.183421 0.341048 0.402615
217 8 0.0186979 0.296291 0.401032
218 9 0.0292004 0.303709 0.37067
219 9 0.0351703 0.318417 0.419036
229 8 0.215047 0.278957 0.278961
231 9 0.193803 0.297809 0.262903
385 8 0.199297 0.409922 0.360086
386 9 0.189039 0.425665 0.332907
387 9 0.230893 0.406787 0.351256
608 9 0.174542 0.473115 0.250619
640 8 0.0617485 0.326979 0.317565
641 9 0.0936847 0.333329 0.318496
642 9 0.0505244 0.354898 0.303873
677 9 0.0370258 0.436617 0.296749
820 8 0.139448 0.438893 0.433912
821 9 0.161001 0.454891 0.452146
822 9 0.158944 0.42955 0.409147
1039 8 0.0146131 0.478105 0.341708
230 9 0.240939 0.298656 0.279875
1040 9 0.0372681 0.485349 0.364064
239 9 0.0471005 0.326553 0.499791
211 8 0.487041 0.392018 0.289236
213 9 0.490385 0.424735 0.286475
369 9 0.254396 0.411489 0.476975
934 8 0.28506 0.407858 0.314228
935 9 0.317473 0.406199 0.311539
936 9 0.277029 0.429314 0.29092
674 9 0.60729 0.428503 0.261826
675 9 0.623217 0.475443 0.25374
212 9 0.50013 0.387179 0.319049
89 9 0.675038 0.478648 0.482885
133 8 0.566618 0.266372 0.361005
134 9 0.593648 0.261487 0.342993
135 9 0.544079 0.254183 0.340502
250 8 0.626503 0.363493 0.424574
251 9 0.639627 0.33707 0.410743
252 9 0.645781 0.386704 0.4105
322 8 0.510989 0.485743 0.266356
323 9 0.540252 0.478661 0.253204
355 8 0.53924 0.36336 0.371705
356 9 0.563985 0.371718 0.391548
357 9 0.544874 0.331042 0.369394
583 8 0.6867 0.426394 0.386061
584 9 0.687161 0.452336 0.406538
585 9 0.715052 0.429972 0.370467
88 8 0.677129 0.495749 0.4547
636 9 0.61942 0.36402 0.493063
561 9 0.774438 0.420731 0.257371
184 8 0.902428 0.313684 0.311666
185 9 0.922293 0.308202 0.286569
186 9 0.901376 0.346659 0.310955
241 8 0.804807 0.404781 0.3122
242 9 0.83768 0.40535 0.310882
243 9 0.800943 0.38418 0.337685
661 8 0.809705 0.341418 0.39011
662 9 0.828132 0.31416 0.389079
663 9 0.804325 0.343556 0.422087
721 8 0.908156 0.411512 0.304027
722 9 0.922657 0.423747 0.276967
723 9 0.925994 0.426564 0.326857
1012 8 0.870271 0.260463 0.384533
1013 9 0.885556 0.280732 0.363072
277 8 0.15077 0.735325 0.354704
278 9 0.177141 0.732605 0.37448
645 9 0.115399 0.558635 0.484006
685 8 0.0787734 0.661731 0.370661
686 9 0.103953 0.642392 0.379741
687 9 0.0964621 0.686279 0.358039
862 8 0.164434 0.623248 0.396839
863 9 0.186231 0.606124 0.414142
864 9 0.181733 0.650112 0.39026
638 9 0.241202 0.531753 0.478088
65 9 0.0250953 0.649578 0.408736
38 9 0.186457 0.746128 0.300388
505 8 0.224006 0.732972 0.418273
637 8 0.222892 0.508077 0.491646
639 9 0.195137 0.525407 0.495739
163 8 0.299889 0.635606 0.366238
164 9 0.29537 0.661449 0.345827
165 9 0.30545 0.613119 0.343658
205 8 0.314628 0.697698 0.439654
206 9 0.345065 0.707805 0.445584
207 9 0.318491 0.678118 0.413454
364 8 0.257774 0.59488 0.44907
365 9 0.267629 0.617651 0.470216
366 9 0.270551 0.607705 0.421512
565 8 0.493921 0.719755 0.292625
567 9 0.469037 0.737493 0.303819
940 8 0.28993 0.707191 0.30503
942 9 0.260666 0.718649 0.294377
507 9 0.25637 0.726176 0.420008
941 9 0.30893 0.728597 0.289643
893 9 0.555464 0.603969 0.263865
839 9 0.672457 0.544854 0.279043
90 9 0.65174 0.515807 0.458175
301 8 0.699336 0.599583 0.262657
302 9 0.690731 0.630772 0.256334
324 9 0.511705 0.518449 0.265628
630 9 0.653637 0.717461 0.254199
757 8 0.664286 0.733608 0.435125
758 9 0.690506 0.715514 0.441672
759 9 0.668348 0.739898 0.403464
838 8 0.658 0.516633 0.28885
840 9 0.659359 0.521061 0.321
892 8 0.524852 0.593127 0.266772
894 9 0.51518 0.608762 0.293685
566 9 0.518419 0.741015 0.296204
680 9 0.971132 0.733115 0.265629
1041 9 0.991741 0.500879 0.349117
64 8 0.996293 0.648765 0.425055
66 9 0.996867 0.678438 0.439372
136 8 0.823321 0.657619 0.292769
137 9 0.836277 0.681121 0.274238
138 9 0.797707 0.647909 0.274867
175 8 0.946849 0.546657 0.369297
176 9 0.96046 0.574964 0.360595
177 9 0.915371 0.555921 0.371461
181 8 0.869958 0.616166 0.367719
182 9 0.890362 0.641917 0.36589
183 9 0.849641 0.624531 0.34306
470 9 0.956249 0.738657 0.485866
604 8 0.960483 0.570679 0.471572
605 9 0.97229 0.598559 0.458597
606 9 0.953364 0.554032 0.444478
681 9 0.944952 0.731178 0.308553
859 8 0.935174 0.692198 0.363255
860 9 0.956563 0.673008 0.379284
861 9 0.931116 0.714674 0.386732
1018 8 0.806025 0.638375 0.455739
1019 9 0.797569 0.607067 0.454834
1020 9 0.826765 0.638948 0.430547
469 8 0.970094 0.741689 0.456083
39 9 0.198227 0.780137 0.264982
279 9 0.131761 0.752148 0.376108
506 9 0.222339 0.755167 0.442079
37 8 0.209508 0.752363 0.27759
43 8 0.100218 0.778574 0.422562
44 9 0.108194 0.804008 0.4422
45 9 0.0801287 0.76217 0.442104
283 8 0.121645 0.845327 0.491407
284 9 0.111191 0.875696 0.496363
953 9 0.434688 0.869413 0.274777
328 8 0.409065 0.91419 0.417316
329 9 0.440701 0.923577 0.420513
330 9 0.394978 0.933921 0.438892
562 8 0.271996 0.993941 0.348441
563 9 0.274179 0.962967 0.338839
973 8 0.444807 0.858392 0.34062
974 9 0.473737 0.857774 0.355625
975 9 0.426498 0.872712 0.364024
848 9 0.636921 0.988696 0.458693
222 9 0.513138 0.82741 0.466952
196 8 0.603911 0.786211 0.492499
198 9 0.622276 0.767826 0.472066
220 8 0.535642 0.849974 0.46071
221 9 0.562374 0.832939 0.470293
391 8 0.503229 0.933098 0.423635
392 9 0.516075 0.905746 0.437432
393 9 0.529001 0.94374 0.406973
460 8 0.675656 0.875378 0.35089
461 9 0.706978 0.869069 0.343977
462 9 0.674692 0.907255 0.344318
835 8 0.685678 0.916906 0.253159
836 9 0.716214 0.91217 0.264567
837 9 0.67364 0.886878 0.257569
847 8 0.661029 0.972015 0.472904
849 9 0.650132 0.941448 0.469694
1000 8 0.584133 0.830238 0.334195
1001 9 0.597113 0.815427 0.308003
1002 9 0.610843 0.845015 0.346133
930 9 0.790162 0.876219 0.277242
268 8 0.855688 0.996011 0.408566
679 8 0.951761 0.751818 0.283819
94 8 0.970156 0.977338 0.413943
96 9 0.938952 0.98637 0.414913
346 8 0.911521 0.849861 0.26359
347 9 0.907423 0.867622 0.290533
348 9 0.922933 0.82175 0.276217
471 9 0.974555 0.773896 0.455486
670 8 0.830385 0.900789 0.371662
671 9 0.839229 0.93106 0.380737
672 9 0.834012 0.885865 0.40068
928 8 0.768951 0.888573 0.298664
929 9 0.789484 0.893174 0.324365
919 8 0.855403 0.897321 0.471323
920 9 0.887296 0.903009 0.474532
921 9 0.842824 0.925243 0.482274
466 8 0.206669 0.0397913 0.501546
190 8 0.139757 0.203332 0.672174
191 9 0.168836 0.188756 0.670628
192 9 0.137182 0.214082 0.641428
467 9 0.208486 0.0267126 0.531789
497 9 0.229194 0.00651112 0.625625
498 9 0.242416 0.0445899 0.595105
760 8 0.179651 0.238942 0.565171
761 9 0.175883 0.23475 0.533139
950 9 0.245961 0.0955284 0.540472
496 8 0.229721 0.0142342 0.594078
326 9 0.141981 0.232333 0.73227
949 8 0.258743 0.107221 0.568338
951 9 0.260104 0.139195 0.561353
304 8 0.295376 0.211795 0.558294
305 9 0.291441 0.213745 0.525627
306 9 0.28595 0.24222 0.566015
313 8 0.486696 0.0196698 0.62099
314 9 0.4679 0.0415429 0.606114
382 8 0.306088 0.159877 0.642727
383 9 0.308808 0.18156 0.618053
384 9 0.296778 0.133784 0.625308
532 8 0.268717 0.172578 0.73458
534 9 0.280156 0.178027 0.704098
533 9 0.285459 0.145552 0.741248
1007 9 0.415255 0.00401709 0.73648
315 9 0.513306 0.0380133 0.627329
100 8 0.561719 0.0823549 0.642034
101 9 0.584191 0.0619746 0.655159
102 9 0.551642 0.0970596 0.669971
169 8 0.667087 0.168337 0.681378
170 9 0.671455 0.200559 0.68056
171 9 0.647175 0.164672 0.655204
265 8 0.683445 0.0938795 0.743306
266 9 0.677833 0.117061 0.720254
442 8 0.607568 0.162362 0.602561
443 9 0.589371 0.136209 0.611122
444 9 0.605525 0.160311 0.569724
577 8 0.61237 0.149259 0.503541
691 8 0.53644 0.128146 0.724015
692 9 0.507817 0.139939 0.734011
693 9 0.555619 0.136717 0.748849
718 8 0.633267 0.0288095 0.684055
719 9 0.658826 0.021177 0.664633
720 9 0.64859 0.047047 0.706838
994 8 0.712978 0.00620213 0.627066
995 9 0.738579 0.0256879 0.632049
203 9 0.808445 0.0658101 0.502771
440 9 0.977906 0.229921 0.510324
477 9 0.974584 0.0507399 0.605696
233 9 0.756313 0.00759021 0.510742
439 8 0.972244 0.243354 0.539761
475 8 0.97534 0.0457183 0.573525
476 9 0.970368 0.0757027 0.562329
544 8 0.799029 0.107123 0.555296
545 9 0.825141 0.12295 0.566709
546 9 0.775186 0.12743 0.564179
850 8 0.92508 0.201482 0.656591
851 9 0.943143 0.208109 0.63017
1045 8 0.947818 0.103841 0.679797
1046 9 0.951895 0.103472 0.712211
1047 9 0.940869 0.13552 0.674451
852 9 0.902466 0.22476 0.653853
368 9 0.243777 0.437302 0.518154
238 8 0.0405282 0.311786 0.528498
240 9 0.068538 0.317101 0.543812
274 8 0.0900888 0.328505 0.699504
275 9 0.074202 0.313587 0.675451
276 9 0.0910166 0.359099 0.687312
454 8 0.0930024 0.415498 0.65024
455 9 0.120257 0.433192 0.651746
456 9 0.0737618 0.434925 0.63267
762 9 0.201428 0.263462 0.565017
327 9 0.128424 0.277112 0.749144
370 8 0.252263 0.306859 0.537449
367 8 0.250951 0.406674 0.508927
371 9 0.261988 0.300164 0.507046
372 9 0.251329 0.339747 0.535912
457 8 0.494673 0.476185 0.573581
459 9 0.463117 0.483314 0.570762
458 9 0.502592 0.490697 0.601552
292 8 0.672873 0.444858 0.540135
293 9 0.680329 0.438458 0.571153
294 9 0.652578 0.419365 0.534402
317 9 0.565163 0.495335 0.720184
511 8 0.515597 0.342603 0.707034
512 9 0.513703 0.35274 0.676174
513 9 0.544348 0.327193 0.705892
634 8 0.613434 0.367919 0.525277
635 9 0.580911 0.366071 0.524976
937 8 0.598381 0.311359 0.636084
938 9 0.613285 0.328537 0.612751
939 9 0.599278 0.281343 0.623584
29 9 0.594832 0.498041 0.6303
142 8 0.839448 0.468939 0.699878
410 9 0.779348 0.499591 0.552398
441 9 0.994967 0.267374 0.538614
697 8 0.803289 0.379905 0.717634
698 9 0.82436 0.365304 0.697899
699 9 0.811964 0.41141 0.713074
790 8 0.872353 0.276168 0.555123
791 9 0.867211 0.25738 0.528608
792 9 0.904942 0.277842 0.553356
143 9 0.8421 0.489399 0.724915
144 9 0.856104 0.486168 0.677179
643 8 0.141408 0.561458 0.50354
644 9 0.138129 0.593494 0.511867
77 9 0.0200184 0.705339 0.74523
97 8 0.179946 0.561979 0.596544
98 9 0.163452 0.560427 0.568172
99 9 0.206128 0.544196 0.588931
106 8 0.0877361 0.692523 0.715039
107 9 0.105113 0.67062 0.697947
108 9 0.0850659 0.715921 0.691941
166 8 0.151166 0.650893 0.641681
167 9 0.165216 0.621867 0.634894
168 9 0.177271 0.670744 0.643554
535 8 0.216418 0.733651 0.648159
832 8 0.128082 0.649997 0.540378
833 9 0.126291 0.647807 0.573014
834 9 0.139091 0.68099 0.538461
536 9 0.24778 0.738822 0.655722
337 8 0.160813 0.741236 0.564369
338 9 0.182877 0.736071 0.588168
1034 9 0.195451 0.724358 0.749965
343 8 0.348329 0.601495 0.599232
344 9 0.370153 0.624855 0.594312
345 9 0.340399 0.607126 0.630542
352 8 0.365779 0.730121 0.651665
353 9 0.371195 0.702451 0.667917
484 8 0.33453 0.62345 0.696106
485 9 0.308874 0.635381 0.712627
486 9 0.335404 0.593611 0.710134
354 9 0.344542 0.744886 0.672156
780 9 0.390335 0.634671 0.73596
411 9 0.741763 0.516349 0.523286
28 8 0.58 0.511087 0.656147
30 9 0.582496 0.543223 0.648056
664 8 0.59185 0.602811 0.628657
665 9 0.618289 0.619475 0.639937
666 9 0.575566 0.627354 0.614834
880 8 0.663494 0.659597 0.659827
881 9 0.687228 0.676386 0.645213
882 9 0.670253 0.665874 0.691603
118 8 0.851112 0.730033 0.606937
119 9 0.830739 0.705394 0.598476
256 8 0.894438 0.529706 0.64519
257 9 0.899277 0.561854 0.645992
258 9 0.914162 0.521043 0.62079
298 8 0.927676 0.730507 0.54656
299 9 0.90086 0.737621 0.564717
300 9 0.922605 0.698466 0.543658
409 8 0.765562 0.527332 0.542597
907 8 0.798271 0.652212 0.57774
908 9 0.794314 0.652081 0.545248
909 9 0.789931 0.621425 0.584592
120 9 0.845021 0.731266 0.638817
285 9 0.145075 0.842978 0.514541
42 9 0.0934902 0.755147 0.620342
40 8 0.080912 0.764521 0.649003
41 9 0.0490261 0.76708 0.64056
61 8 0.19491 0.835812 0.560475
62 9 0.191971 0.839338 0.59308
63 9 0.227732 0.838026 0.557444
339 9 0.169686 0.771512 0.555067
537 9 0.204262 0.764078 0.6527
658 8 0.173802 0.822912 0.660068
659 9 0.177659 0.846861 0.682771
660 9 0.142498 0.814997 0.665654
856 8 0.18191 0.894282 0.726813
858 9 0.212634 0.903964 0.732419
78 9 0.0166059 0.754839 0.746841
717 9 0.291176 0.881975 0.744283
154 8 0.297195 0.833333 0.554523
155 9 0.315768 0.857534 0.543268
156 9 0.321011 0.811398 0.561034
412 8 0.382556 0.783085 0.571492
413 9 0.414988 0.785337 0.572959
414 9 0.377182 0.763603 0.597722
715 8 0.297367 0.86256 0.718114
716 9 0.314858 0.883096 0.699913
739 8 0.4718 0.931412 0.661988
741 9 0.478792 0.958912 0.645064
754 8 0.301223 0.767058 0.715714
755 9 0.274063 0.759027 0.732772
756 9 0.297164 0.800173 0.714104
740 9 0.456289 0.945599 0.687598
188 9 0.474478 0.848381 0.734213
1006 8 0.431025 0.975527 0.737113
234 9 0.710439 0.987106 0.511606
996 9 0.71781 0.999862 0.594969
197 9 0.621326 0.782605 0.520057
19 8 0.677574 0.917181 0.664345
20 9 0.690583 0.946986 0.65956
21 9 0.676057 0.907407 0.632939
33 9 0.712292 0.853604 0.669868
46 8 0.667217 0.791267 0.577438
47 9 0.686667 0.788625 0.603538
48 9 0.671054 0.823249 0.571343
232 8 0.73673 0.991456 0.531386
616 8 0.535638 0.859748 0.673759
617 9 0.512256 0.881326 0.664356
618 9 0.556781 0.881144 0.68707
787 8 0.530267 0.763762 0.658057
788 9 0.557196 0.759209 0.640574
789 9 0.531738 0.79647 0.662739
976 8 0.593446 0.930547 0.717382
977 9 0.622344 0.921619 0.704176
978 9 0.594282 0.962426 0.709959
985 8 0.704574 0.885944 0.573758
986 9 0.718436 0.908005 0.554064
987 9 0.730796 0.87091 0.586264
31 8 0.731283 0.828658 0.660119
32 9 0.746416 0.821583 0.688162
245 9 0.905034 0.779481 0.728155
883 8 0.986784 0.771343 0.620765
884 9 0.959733 0.779098 0.637835
885 9 0.972548 0.757646 0.594551
889 8 0.976358 0.882567 0.688454
890 9 0.99933 0.90472 0.694723
891 9 0.994303 0.858787 0.675255
1021 8 0.908273 0.811344 0.668027
1022 9 0.92118 0.840346 0.676884
1023 9 0.88301 0.820826 0.649748
307 8 0.224323 0.123095 0.868357
308 9 0.24133 0.141207 0.889615
309 9 0.219096 0.146819 0.846077
400 8 0.209596 0.0398772 0.958321
401 9 0.219411 0.0134128 0.974714
402 9 0.23657 0.0461434 0.941039
449 9 0.241548 0.215427 0.874891
451 8 0.0495673 0.00694811 0.88733
452 9 0.0755221 0.0270618 0.891182
453 9 0.0283623 0.021083 0.908513
514 8 0.130379 0.0640192 0.902042
515 9 0.15273 0.0560033 0.925087
516 9 0.138067 0.0954366 0.897611
712 8 0.202516 0.0335648 0.838382
713 9 0.2152 0.063047 0.846749
714 9 0.172999 0.0368321 0.852593
784 8 0.216465 0.205102 0.812805
785 9 0.234317 0.198461 0.785706
786 9 0.191235 0.220879 0.798231
620 9 0.310739 0.205647 0.99988
621 9 0.272729 0.196239 0.968238
448 8 0.258662 0.215348 0.903185
331 8 0.326421 0.031803 0.931907
332 9 0.340948 0.057493 0.945903
333 9 0.324002 0.0124427 0.958522
433 8 0.359516 0.0275184 0.835104
434 9 0.351459 0.0301472 0.866885
435 9 0.388277 0.0120984 0.837759
450 9 0.275513 0.242969 0.899305
499 8 0.282029 0.0213286 0.774372
500 9 0.308352 0.0295308 0.792648
501 9 0.257318 0.0318555 0.793269
619 8 0.283715 0.187552 0.998071
964 8 0.447804 0.23142 0.937234
746 9 0.478889 0.110632 0.976263
966 9 0.438353 0.246055 0.909242
16 8 0.524322 0.0133256 0.891903
18 9 0.53441 0.0238548 0.921677
22 8 0.733646 0.0727195 0.864916
24 9 0.721375 0.100423 0.851754
267 9 0.690625 0.114065 0.768403
415 8 0.715194 0.156939 0.814625
416 9 0.707764 0.187971 0.821171
417 9 0.747705 0.160161 0.808339
490 8 0.667915 0.0117815 0.983042
491 9 0.694059 0.0288405 0.992201
865 8 0.729152 0.0133195 0.787744
866 9 0.730725 0.0302206 0.816102
867 9 0.712847 0.0353818 0.769638
997 8 0.627861 0.23613 0.981091
998 9 0.618874 0.233368 0.950027
1036 8 0.57438 0.042266 0.971478
1037 9 0.606444 0.0348714 0.974204
23 9 0.742453 0.0834494 0.894388
17 9 0.553558 0.0058605 0.879896
390 9 0.956927 0.132895 0.987844
79 8 0.908046 0.168982 0.805144
80 9 0.923501 0.140393 0.79894
81 9 0.926076 0.188847 0.786688
160 8 0.955639 0.0865279 0.785699
161 9 0.947434 0.0549933 0.779329
162 9 0.984459 0.080971 0.799925
172 8 0.931329 0.15405 0.931145
173 9 0.928867 0.168443 0.902024
174 9 0.912967 0.127207 0.925523
259 8 0.979156 0.0422955 0.94547
260 9 0.949321 0.048595 0.933151
261 9 0.979656 0.0645055 0.969727
286 8 0.812267 0.00393694 0.91655
571 8 0.809585 0.163172 0.797457
572 9 0.83982 0.170112 0.808803
573 9 0.818055 0.144956 0.771894
814 8 0.886417 0.068268 0.911181
815 9 0.861519 0.0507013 0.92402
816 9 0.878455 0.0651715 0.879742
15 9 0.156914 0.363052 0.9873
68 9 0.066025 0.482969 0.896221
73 8 0.18095 0.401563 0.942482
74 9 0.210915 0.414619 0.93941
75 9 0.169745 0.40792 0.91241
295 8 0.181314 0.444232 0.850202
296 9 0.197258 0.441119 0.821387
297 9 0.207772 0.452119 0.868283
325 8 0.145358 0.250907 0.759233
802 8 0.0833748 0.426006 0.850437
803 9 0.0875657 0.394871 0.841769
804 9 0.114672 0.436337 0.84778
957 9 0.0226183 0.450955 0.835667
774 9 0.261443 0.454065 0.753835
965 9 0.465157 0.255306 0.950608
82 8 0.361451 0.369727 0.9629
83 9 0.389841 0.368243 0.979771
84 9 0.34138 0.35917 0.98614
93 9 0.497394 0.343437 0.822578
430 8 0.431481 0.286502 0.857482
431 9 0.46268 0.297044 0.858755
432 9 0.422517 0.301421 0.829834
613 8 0.262995 0.452 0.906587
614 9 0.286603 0.432837 0.893267
615 9 0.281939 0.471075 0.925074
763 8 0.449341 0.357637 0.779395
764 9 0.466984 0.349323 0.752731
765 9 0.452027 0.390562 0.777013
772 8 0.250521 0.440818 0.781491
773 9 0.278133 0.429225 0.794397
775 8 0.472883 0.45207 0.776711
777 9 0.460707 0.47938 0.789388
925 8 0.338991 0.399886 0.875157
926 9 0.346792 0.390202 0.906038
927 9 0.364419 0.386766 0.859629
796 8 0.672344 0.321994 0.979208
797 9 0.704477 0.326898 0.982636
798 9 0.660464 0.349854 0.991098
316 8 0.554575 0.499991 0.751218
999 9 0.645216 0.264339 0.979828
91 8 0.517056 0.332309 0.846573
92 9 0.53677 0.357779 0.85077
683 9 0.641594 0.499559 0.974623
776 9 0.501568 0.463451 0.764956
817 8 0.573221 0.485595 0.85545
819 9 0.566305 0.480769 0.823715
824 9 0.673695 0.495635 0.896966
825 9 0.639574 0.49474 0.860155
991 8 0.567722 0.487472 0.962407
993 9 0.538738 0.473623 0.96845
992 9 0.570114 0.481671 0.930142
962 9 0.791126 0.327034 0.970354
122 9 0.757668 0.35369 0.8913
121 8 0.776455 0.361376 0.91669
123 9 0.786742 0.391188 0.906639
541 8 0.801628 0.446391 0.874696
542 9 0.826883 0.44952 0.854501
543 9 0.787561 0.475744 0.871382
955 8 0.991963 0.457906 0.825861
956 9 0.981972 0.428326 0.816943
55 8 0.0827902 0.622773 0.909251